index,mp_id,formula,natoms,energy_pa,n_nodes,n_edges,avg_degree,std_degree,avg_clustering,density
535,mp-1181688,Cs2K2B10O17,62,-2.811815186978402,62,548,17.677419354838708,1.8029920790299507,0.5667679146369352,0.2897937599153887
536,mp-1195326,H3CSNOF2,36,-0.9658862474647221,36,264,14.666666666666666,1.9436506316151,0.624801161075671,0.41904761904761906
537,mp-1206509,U2Tc,6,0.05134597166666547,6,15,5.0,0.0,1.0,1.0
538,mp-1227157,Ca5Bi6(Cl3O2)4,31,-2.260118396745807,31,167,10.774193548387096,3.149087706287944,0.5540276927373701,0.35913978494623655
539,mp-32066,LiMo2(PO4)3,36,-2.5574912317460323,36,329,18.27777777777778,2.2804861946415325,0.5543222162159213,0.5222222222222223
540,mp-1215944,Zr2Ti(PbO3)3,15,-2.8172150398611118,15,70,9.333333333333334,1.2995725793078619,0.6890524290524291,0.6666666666666666
541,mp-1209877,Nd3Ta(ClO2)3,26,-3.293662596906154,26,174,13.384615384615385,1.3323467750529827,0.5656804733727809,0.5353846153846153
542,mp-1119338,Na2O,9,-1.3779155481944447,9,34,7.555555555555555,0.6849348892187752,0.9523809523809526,0.9444444444444444
543,mp-1046933,ZnNiO2,16,-1.1672052587500001,16,85,10.625,0.6959705453537527,0.7044191919191918,0.7083333333333334
544,mp-1175514,Li9Co7O16,32,-1.6992148556249989,32,174,10.875,0.414578098794425,0.6807765151515153,0.35080645161290325
545,mp-1228534,Bi13Mo6(AsO14)3,128,-1.8749812940234367,128,810,12.65625,1.4813291118114165,0.49813320360195346,0.09965551181102363
546,mp-865887,TmCdAu2,4,-0.67029722375,4,6,3.0,0.0,1.0,1.0
547,mp-1192820,Mn2Sb3I3O5,26,-1.4597261937053847,26,150,11.538461538461538,2.6779838746968014,0.6583258621720158,0.46153846153846156
548,mp-1192144,NdBN2,24,-1.530509905565,24,204,17.0,1.224744871391589,0.7219900240798075,0.7391304347826086
549,mp-1225655,Er2FeGe4,7,-0.5618052242857142,7,20,5.714285714285714,0.4517539514526256,0.9523809523809524,0.9523809523809523
550,mp-1191478,Tm2Fe17C3,22,-0.09307706119318482,22,178,16.181818181818183,1.6958871005616027,0.7762445500835596,0.7705627705627706
551,mp-1096462,AlCdRh2,4,1.9755083387499996,4,4,2.0,0.0,0.0,0.6666666666666666
552,mvc-9261,Y4Ti13Si2(SbO14)2,49,-2.9029589428911553,49,448,18.285714285714285,1.8516401995451028,0.5377877574796849,0.38095238095238093
553,mp-1039816,Mg30SiCO32,64,-2.8742316079492185,64,835,26.09375,0.2914805954090255,0.4106944444444444,0.41418650793650796
554,mp-1198564,EuCuGe,36,-0.47080122194444446,36,160,8.88888888888889,1.523478800089121,0.6200577200577199,0.25396825396825395
555,mp-1216548,Tm4CdS7,12,-2.166227263619792,12,40,6.666666666666667,0.7453559924999298,0.6422619047619046,0.6060606060606061
556,mp-1181173,K4Ag2Sn3S9O2,80,-0.9541386579281266,80,334,8.35,2.0316249653910043,0.38662115662115626,0.10569620253164556
557,mp-1199672,NaGaBP2H3O10,36,-2.3606084321840206,36,438,24.333333333333332,1.2018504251546631,0.7007127619204915,0.6952380952380952
558,mp-1184650,Hf3Ga,4,-0.23644004624999937,4,6,3.0,0.0,1.0,1.0
559,mp-1216319,UAl7Cu5,13,-0.2205694400000001,13,70,10.76923076923077,0.5756395979652217,0.8850038850038852,0.8974358974358975
560,mp-1196856,H6AuC3NO,72,-0.3109484326333324,72,730,20.27777777777778,2.9022128636908837,0.4412515423218972,0.2856025039123631
561,mp-1186383,OsPb3,4,0.8708177962500008,4,6,3.0,0.0,1.0,1.0
562,mp-861540,Li4Mn(PO3)6,58,-2.623845116769557,58,568,19.586206896551722,1.5869563446901866,0.5727701606958575,0.34361766485178463
563,mp-1192498,Tm6Mn23,29,-0.017336086206894613,29,194,13.379310344827585,1.9192993172518267,0.4780746636730409,0.47783251231527096
564,mp-1214164,Ca4Si6W5O17,32,-2.012390201835937,32,234,14.625,1.5761900266148114,0.6517173084268674,0.4717741935483871
565,mp-707081,Ca3P4H20(NO10)2,98,-1.9789256303210494,98,1308,26.693877551020407,2.2057816573043043,0.48829355932594987,0.27519461392804545
566,mp-8287,SmCuP2,8,-0.8481170366964284,8,21,5.25,0.4330127018922193,0.6666666666666666,0.75
567,mp-1192384,DyWBrO4,28,-2.5922211867857134,28,181,12.928571428571429,1.279748061940637,0.565018315018315,0.47883597883597884
568,mp-1183022,AlPO4,48,-1.9863916849404764,48,325,13.541666666666666,2.798499101701164,0.5043894121873999,0.28812056737588654
569,mp-1043919,LaFeWO6,18,-2.587676607222223,18,108,12.0,1.247219128924647,0.7329830663163996,0.7058823529411765
570,mp-1095204,Tm2Ni2Sn,10,-0.610254003,10,36,7.2,0.9797958971132713,0.803809523809524,0.8
571,mp-1227798,Ca8Be5Al3Si18(HO14)4,94,-3.2132659121221274,94,752,16.0,2.036893755258915,0.5098650536964449,0.17204301075268819
572,mp-1175478,Li9Co7O16,32,-1.7075531178124992,32,233,14.5625,0.49607837082461076,0.6815247252747254,0.46975806451612906
573,mp-1206621,KYbI3,10,-1.5882595435999998,10,14,2.8,0.7483314773547882,0.0,0.3111111111111111
574,mp-1048406,BaYNi4O7,26,-1.6670324529807696,26,204,15.692307692307692,1.135755620017954,0.6844069580494924,0.6276923076923077
575,mp-1179383,TiSi2C3N2Cl5,52,-0.535580483767436,52,236,9.076923076923077,2.0176733920929233,0.515234765234765,0.1779788838612368
576,mp-1225779,CuSi4P3,8,0.1615243429464286,8,16,4.0,0.0,0.5,0.5714285714285714
577,mp-1173392,NbRhO4,6,-2.1738175511904756,6,15,5.0,0.0,1.0,1.0
578,mp-1209096,Sc6CuTe2,36,-0.5968013891666667,36,136,7.555555555555555,0.8314794192830981,0.4507054673721339,0.21587301587301588
579,mp-1079664,Nd2InNi2,10,-0.43441625266666717,10,36,7.2,0.9797958971132713,0.803809523809524,0.8
580,mp-1203255,UPH3(CO5)2,34,-1.3476452169413449,34,295,17.352941176470587,2.4956709924231086,0.6030596596386071,0.5258467023172906
581,mp-1179066,TeMo3(NO6)2,36,-1.049498082764444,36,312,17.333333333333332,1.699673171197595,0.6835597981882816,0.49523809523809526
582,mp-1174020,Li3MnCoO5,20,-1.9720942687210006,20,182,18.2,0.39999999999999997,0.9540419676642587,0.9578947368421052
583,mp-1216713,V(CoSe2)2,7,-0.4070204891964287,7,21,6.0,0.0,1.0,1.0
584,mp-1226740,CdSnTe2,4,-0.27980560249999975,4,4,2.0,0.0,0.0,0.6666666666666666
585,mp-1217271,Th2PNO,5,-2.540928883154571,5,10,4.0,0.0,1.0,1.0
586,mp-1228469,Ba2Y2Co3CuO10,18,-2.376184171805556,18,139,15.444444444444445,1.0657403385139377,0.9050456079867849,0.9084967320261438
587,mp-1110732,Rb3DyCl6,10,-2.4278689680594487,10,24,4.8,2.4,0.6399999999999999,0.5333333333333333
588,mp-1228272,Ba3UIn2O9,15,-2.9798351945277783,15,81,10.8,0.9797958971132711,0.7503030303030304,0.7714285714285715
589,mp-1196140,NbP4Se3Cl5,104,-0.8255658406958107,104,384,7.384615384615385,1.4432048491764398,0.5888111888111889,0.07169529499626587
590,mp-1110964,K2NaCeI6,10,-1.3408219871,10,12,2.4,1.9595917942265422,0.0,0.26666666666666666
591,mp-1193634,CsSnPS4,28,-1.0140761770856785,28,110,7.857142857142857,1.4568627181693672,0.6208616780045352,0.291005291005291
592,mp-1191650,VCuBi2O7,22,-1.7242555821590904,22,169,15.363636363636363,1.2264306875665492,0.7213029617441379,0.7316017316017316
593,mp-1226382,Cr2CdSeS3,14,-0.9362002543973215,14,62,8.857142857142858,2.0303814862216996,0.738095238095238,0.6813186813186813
594,mp-1175134,Li7Mn2(CoO4)3,24,-1.8580473811216673,24,177,14.75,0.5204164998665332,0.6710317460317459,0.6413043478260869
595,mp-1200315,NaCuMoO5,32,-1.6509402445312498,32,272,17.0,1.6583123951777,0.5994310224089635,0.5483870967741935
596,mp-1112326,CsK2AsF6,10,-2.71206373743469,10,36,7.2,0.9797958971132713,0.7485714285714287,0.8
597,mp-1219316,Sm2Ti12(CuO4)9,59,-2.7311823237288135,59,740,25.084745762711865,2.069046579688994,0.5418095692638273,0.4324956165984804
598,mp-29927,Pb7(BrF6)2,21,-2.438697234965714,21,87,8.285714285714286,1.27775312999988,0.4649247577819008,0.4142857142857143
599,mp-1217947,TaNb(AgO3)2,40,-2.2985891579642868,40,284,14.2,1.4696938456699067,0.6722312001723769,0.3641025641025641
600,mp-1204392,TiMnGe2,48,-0.4198114354166667,48,382,15.916666666666666,2.0190069065976193,0.4859147302645754,0.33865248226950356
601,mp-1221612,Na2Eu2Ti2O9,15,-2.765930894305556,15,43,5.733333333333333,0.5734883511361751,0.6511111111111111,0.4095238095238095
602,mp-1214629,Ba2Zn2Cr7Ga2(SnO11)2,37,-2.3928666510135126,37,296,16.0,1.9030558640306967,0.6674151910994016,0.4444444444444444
603,mp-1177935,Li2Mn3CoO8,56,-1.9610477346700006,56,740,26.428571428571427,2.3211538298959886,0.5432249202410497,0.4805194805194805
604,mp-1221941,MnRe(CO)10,44,-0.9157480406118181,44,354,16.09090909090909,1.8317674254190803,0.5588949956913646,0.37420718816067655
605,mp-1201645,ErNi5Ge3,36,-0.5295584574999997,36,190,10.555555555555555,1.0657403385139377,0.6433221099887768,0.30158730158730157
606,mp-1192732,Cs3H(SeO4)2,28,-1.689425776387728,28,166,11.857142857142858,1.684260874650228,0.5901122686836973,0.43915343915343913
607,mp-1226371,Cr2Se3,20,-0.5175698741562499,20,128,12.8,1.7204650534085253,0.6693051393051391,0.6736842105263158
608,mp-1184076,DyTaOs2,4,-0.2127305074999999,4,6,3.0,0.0,1.0,1.0
609,mp-1103351,Na4Mg(SiSe3)2,13,-0.9606826755048078,13,60,9.23076923076923,0.890448992522325,0.7252136752136753,0.7692307692307693
610,mp-1191709,Nd4CrS7,24,-1.9842118598697915,24,138,11.5,1.3228756555322954,0.5252719502719502,0.5
611,mp-1173028,NdO3,8,-2.1952013790624996,8,28,7.0,0.0,1.0,1.0
612,mp-1201492,Si,232,0.12120160543103523,232,1472,12.689655172413794,1.6421904689366424,0.3915793976138804,0.054933572174951484
613,mp-1228279,Ba3NaSr(SbO4)3,40,-2.550446488749999,40,310,15.5,2.29128784747792,0.4199768652400232,0.3974358974358974
614,mp-1041397,CaCo4O9,28,-1.3150254543749997,28,223,15.928571428571429,1.3868919884962572,0.6253643123916233,0.58994708994709
615,mp-1183026,AgC2N3,24,1.1067206746433342,24,62,5.166666666666667,1.3437096247164249,0.6238095238095238,0.2246376811594203
616,mp-1209566,PrTa7O19,54,-3.4397357429166653,54,448,16.59259259259259,1.9101921419596481,0.7412195017458182,0.31306778476589797
617,mp-1201177,CaB4(H10N)2,54,-0.451484440697284,54,798,29.555555555555557,1.617802197617893,0.5891844724104843,0.5576519916142557
618,mp-1226505,Cr11NiS16,28,-1.0165703401785717,28,106,7.571428571428571,0.82065180664829,0.6517006802721088,0.2804232804232804
619,mp-1173843,Na3H12Ru2(C2O9)2,78,-1.6051093316907692,78,997,25.564102564102566,2.564999843003662,0.4512091013354849,0.33200133200133203
620,mp-1224722,K14P16Pd9O56,95,-2.3290241717503766,95,755,15.894736842105264,2.739472420243401,0.42933575341036123,0.1690929451287794
621,mp-1204135,OsXe2O3F14,80,-1.0939725537704998,80,572,14.3,1.9261360284258222,0.47507545559016134,0.1810126582278481
622,mp-1196427,Mg7(SiO7)2,46,-2.555179703586957,46,522,22.695652173913043,2.1148498273070104,0.6034858736152139,0.5043478260869565
623,mp-1190749,HoIn2Ni9,24,-0.22234186222222205,24,154,12.833333333333334,1.9075871903765995,0.5890968508615565,0.5579710144927537
624,mp-1179557,Sm2Mo8O45,55,-0.9582433402045457,55,416,15.127272727272727,2.7505671841841535,0.4255141118693043,0.2801346801346801
625,mp-1183667,B4H5,144,-0.1577375521962965,144,1888,26.22222222222222,2.298684540619689,0.5831616412805861,0.18337218337218336
626,mp-1186436,Pm2CdHg,4,-0.39473277750000024,4,6,3.0,0.0,1.0,1.0
627,mp-1194682,Sm3P3O14,80,-2.944813078196429,80,690,17.25,1.0307764064044151,0.4742767457860337,0.21835443037974683
628,mp-976260,LiTm2Au,4,-0.43190266999999993,4,6,3.0,0.0,1.0,1.0
629,mp-46,Ti,2,0.007263838333332551,2,1,1.0,0.0,0.0,1.0
630,mp-977566,MgScPd2,4,-0.8378065325000001,4,6,3.0,0.0,1.0,1.0
631,mp-1203733,ZrH5S3O14,46,-1.9570618516429348,46,354,15.391304347826088,1.466706764646348,0.5282468951906294,0.34202898550724636
632,mp-505743,GaBPbO4,28,-2.3127265577380944,28,246,17.571428571428573,1.9897697538834458,0.7031672318050025,0.6507936507936508
633,mp-1223278,Li(TiS2)2,7,-1.6797357356547633,7,21,6.0,0.0,1.0,1.0
634,mp-5159,LiGa2Pd,4,-0.519486235,4,6,3.0,0.0,1.0,1.0
635,mp-1224340,HfNbCN,4,-1.1434037595682138,4,6,3.0,0.0,1.0,1.0
636,mp-1203994,TeSe(NO5)2,56,0.6250482986890188,56,316,11.285714285714286,1.9974473505870802,0.4881838399695539,0.2051948051948052
637,mp-1202398,GeC4NCl3,36,0.9345622253155557,36,172,9.555555555555555,2.543449587168799,0.49518259518259494,0.273015873015873
638,mp-1187801,Y3Lu,8,-0.0032786287500004008,8,24,6.0,0.0,0.7999999999999999,0.8571428571428571
639,mp-1113575,Cs2AgAuBr6,10,-0.892206602241379,10,36,7.2,0.9797958971132713,0.7485714285714287,0.8
640,mp-1195461,Ba7Al4Sb9,40,-0.778465598000001,40,134,6.7,0.8426149773176358,0.27718253968253975,0.1717948717948718
641,mp-1222472,LiFe(SO4)2,24,-2.115443333177083,24,188,15.666666666666666,1.0274023338281628,0.6913923902894489,0.6811594202898551
642,mp-1217268,Tm2PbS4,56,-2.0147301526785717,56,326,11.642857142857142,2.1582778471054467,0.46208830851687976,0.21168831168831168
643,mp-1208404,Tm2Sn3(PbS4)3,40,-1.2273368166875016,40,136,6.8,1.5362291495737217,0.4745634920634919,0.17435897435897435
644,mp-1214073,Cs2MnH12(SeO7)2,62,-1.5237160752097192,62,594,19.161290322580644,2.397536022717683,0.5290863981097116,0.3141195134849286
645,mp-1185609,LiGd2Rh,4,-0.4254879299999992,4,6,3.0,0.0,1.0,1.0
646,mp-1113996,Rb3GaCl6,10,-1.9345790230594482,10,36,7.2,0.9797958971132713,0.7485714285714287,0.8
647,mp-1214827,Ba7Sn3Te3Se10,92,-1.3571579328668475,92,324,7.043478260869565,1.197034773733583,0.16987577639751547,0.07740086000955566
648,mp-1222967,LaNi4(BiO4)3,20,-1.5183061379999998,20,155,15.5,0.9746794344808963,0.8076400560224091,0.8157894736842105
649,mp-1208202,YbI3O10,56,-0.44242482410714296,56,418,14.928571428571429,1.3343958351621004,0.506674592914089,0.2714285714285714
650,mp-1213498,CsSm(NbBr3)6,52,-1.1328738394832325,52,222,8.538461538461538,1.9261513885459864,0.3529304029304028,0.167420814479638
651,mp-1207163,Lu4Ni2C5,11,-0.41775514852272716,11,35,6.363636363636363,0.77138921583987,0.6510822510822512,0.6363636363636364
652,mp-1225053,DyZnCuAs2,5,-0.6606222969999997,5,9,3.6,0.4898979485566356,0.9,0.9
653,mp-1105136,YTl(PSe3)2,20,-0.6314302715848215,20,102,10.2,1.661324772583615,0.6128576978576978,0.5368421052631579
654,mp-1217146,Ti2VSe4,7,-1.0125393353869043,7,21,6.0,0.0,1.0,1.0
655,mp-1189335,YO3,16,-2.0391642740625002,16,100,12.5,0.5,0.8141025641025643,0.8333333333333334
656,mp-1211116,NiH36(C5N)12,109,-0.031294899393394165,109,1317,24.165137614678898,2.5540533048107066,0.4272635855341409,0.2237512742099898
657,mp-1192541,Ho3Te3N,28,-1.556305339268572,28,132,9.428571428571429,1.293626448305345,0.4463306534735106,0.3492063492063492
658,mp-1214731,Ba2CuSe2F,6,-0.8442810972295831,6,6,2.0,0.0,0.0,0.4
659,mp-1204283,Na5Ga7H12S13O6,86,-1.3212301186919175,86,736,17.11627906976744,3.126847750107546,0.421513897818887,0.20136798905608755
660,mp-601275,K3AlH6,40,-0.15886588657199957,40,164,8.2,0.812403840463596,0.4654761904761905,0.21025641025641026
661,mp-1183057,Ac,3,0.01874219999999956,3,3,2.0,0.0,1.0,1.0
662,mp-1217234,Ti8Co3NiSn4,16,-0.1649440014583332,16,48,6.0,0.0,0.5999999999999999,0.4
663,mp-1177598,Li3V3P8O29,86,-2.5392966326370443,86,807,18.767441860465116,2.457425475482426,0.4546454795194803,0.2207934336525308
664,mp-1209342,Rb5Tm3Br12,20,-1.7085510465862073,20,36,3.6,0.7348469228349533,0.09999999999999999,0.18947368421052632
665,mp-567435,UNiSn,3,0.8652848916666672,3,3,2.0,0.0,1.0,1.0
666,mp-569343,Tb4Mg3Co2,9,-0.15693643370370344,9,32,7.111111111111111,0.7370277311900888,0.8804232804232804,0.8888888888888888
667,mp-1207259,Tb2Br2O,5,-1.3174865635833335,5,5,2.0,0.0,0.0,0.5
668,mp-1206557,YbU2S3O2,8,-2.680437625585938,8,21,5.25,0.9682458365518543,0.7458333333333335,0.75
669,mp-1214247,Ca3In2(GeO4)3,80,-2.6077288432083328,80,864,21.6,3.9038442591886273,0.4379151538379813,0.27341772151898736
670,mp-1204867,Ho11(Ni10C)6,77,-0.279227502564936,77,631,16.38961038961039,1.9350213539936802,0.4110198942895649,0.21565276828434723
671,mp-1194141,AgSbC2N2(ClF3)2,28,-1.417113696851428,28,160,11.428571428571429,2.691634811630968,0.5518287268287269,0.42328042328042326
672,mp-1112340,Cs2TlRhF6,10,-2.462592316455379,10,36,7.2,0.9797958971132713,0.7485714285714287,0.8
673,mp-982666,LiAl2Tc,4,-0.2783876850000002,4,6,3.0,0.0,1.0,1.0
674,mp-1183274,Ba2MgIn,4,-0.24421454833333334,4,4,2.0,0.0,0.0,0.6666666666666666
675,mp-1183552,CaPmAg2,4,-0.321572276875,4,6,3.0,0.0,1.0,1.0
676,mp-1202559,Ga6P8H56C14N7O32F,248,-1.275343510606555,248,3038,24.5,3.0227631025592374,0.4304985124328699,0.09919028340080972
677,mp-1044003,MgCuBiO5,32,-1.52205442234375,32,224,14.0,1.0,0.5785485347985346,0.45161290322580644
678,mp-1048779,Mg(BiO3)2,18,-1.6003113369444444,18,125,13.88888888888889,1.0999438818457405,0.8131757131757135,0.8169934640522876
679,mp-1189635,Zn3Sn3Se9NO4,20,-0.3207897127361875,20,80,8.0,1.449137674618944,0.47019841269841267,0.42105263157894735
680,mp-1188500,Nb3Au2,20,0.03385235271428542,20,126,12.6,0.4898979485566356,0.6650349650349651,0.6631578947368421
681,mp-1221425,MoPt3,4,-0.17368713499999977,4,4,2.0,0.0,0.0,0.6666666666666666
682,mp-1043888,Sr2GaNi2O7,24,-1.6865470440624992,24,142,11.833333333333334,0.9860132971832694,0.6812160062160063,0.5144927536231884
683,mp-1101460,NbCrO4,24,-2.7330619582738103,24,212,17.666666666666668,0.4714045207910317,0.7568082788671027,0.7681159420289855
684,mp-1217602,Ti4Si2O17,92,-2.2387203946920287,92,700,15.217391304347826,3.2026690192526774,0.4658041969995122,0.16722408026755853
685,mp-1196277,UH4C2SeN4O7,38,-1.0687173433601973,38,300,15.789473684210526,1.280581585325941,0.7010736597423903,0.4267425320056899
686,mp-1223408,KNbWO7,20,-2.120745706639286,20,161,16.1,1.6401219466856725,0.8506743909685086,0.8473684210526315
687,mp-1147692,Li10Zn(PS4)4,62,-1.2072940549539175,62,405,13.064516129032258,1.693164318969124,0.3693835286577222,0.21417239555790588
688,mp-1212516,H6CS(NO)3,56,-0.9991371668158929,56,586,20.928571428571427,2.6982609667891575,0.5896709500317703,0.38051948051948054
689,mp-1197175,KLi3Ca7Ti2(Si6O19)2,126,-3.252012183632275,126,1226,19.46031746031746,1.8925534680366831,0.42305994615060116,0.15568253968253967
690,mp-1175472,Li9Co7O16,32,-1.7012833868749988,32,231,14.4375,0.49607837082461076,0.5042582417582417,0.4657258064516129
691,mp-1177017,Li6Fe3P8O29,92,-2.4926745307259317,92,899,19.543478260869566,1.765693874436637,0.4365508609653542,0.21476349737219302
692,mp-1184643,Ho2InHg,4,-0.45111825333333355,4,6,3.0,0.0,1.0,1.0
693,mp-1113973,Rb2LiSmCl6,10,-2.4305301572749656,10,36,7.2,0.9797958971132713,0.7485714285714287,0.8
694,mp-1217274,ThHg3,4,-0.06389486750000017,4,4,2.0,0.0,0.0,0.6666666666666666
695,mp-643264,BaMg2FeH8,12,-0.46792361574666685,12,64,10.666666666666666,0.4714045207910317,0.9683501683501684,0.9696969696969697
696,mp-1224702,Fe2PtRh,4,0.1234700799999997,4,6,3.0,0.0,1.0,1.0
697,mp-1203562,La4Fe(SbS5)2,68,-1.7831796606250003,68,462,13.588235294117647,1.7509265960161433,0.4936220642102991,0.20280948200175591
698,mp-1223241,La2C(NO)2,7,-1.8208282780014287,7,21,6.0,0.0,1.0,1.0
699,mp-1186882,Rb3Zr,4,1.0493782197413788,4,0,0.0,0.0,0.0,0.0
700,mp-1215783,Zr10Sn7,17,-0.5659270373529419,17,95,11.176470588235293,1.1496953109230625,0.6457287810228987,0.6985294117647058
701,mp-1210903,Na2P2H3(SO2)2,52,-1.0649045708285172,52,399,15.346153846153847,2.129324697794832,0.5012752267842769,0.3009049773755656
702,mp-1198826,H10PtC2(NCl)2,68,-0.5260526830870589,68,652,19.176470588235293,1.1496953109230625,0.5895190687213999,0.286215978928885
703,mp-1202735,Al2Fe(PO9)2,46,-1.1862362611645962,46,388,16.869565217391305,3.0970441423492394,0.5260483500286973,0.3748792270531401
704,mp-1175943,Li9Mn2Co5O16,32,-1.8514626359974997,32,362,22.625,0.4841229182759271,0.7402832674571806,0.7298387096774194
705,mp-1182175,BaInCu3Se4,9,-0.4028866475231475,9,23,5.111111111111111,0.7370277311900889,0.3301587301587301,0.6388888888888888
706,mp-1201170,Ni2P2(C2O3)3,38,-0.9601003127913529,38,277,14.578947368421053,2.110519753238255,0.4625166154252026,0.3940256045519203
707,mp-1177681,Li3Fe8(BO3)8,43,-2.3457571051937975,43,443,20.6046511627907,1.7272041514071759,0.5668985528974041,0.49058693244739754
708,mp-1186473,Pm2PdAu,4,-0.7841490112500011,4,6,3.0,0.0,1.0,1.0
709,mp-1211818,K4H5(SeO4)4,29,-1.4683604882577583,29,230,15.862068965517242,3.0254567957301863,0.6090869890699078,0.5665024630541872
710,mvc-13889,Zn(FeN)2,5,0.3320302060479989,5,10,4.0,0.0,1.0,1.0
711,mp-1173870,Na11N7O16,34,-0.7658062668135289,34,174,10.235294117647058,1.164646463130784,0.6692541119011708,0.31016042780748665