index,mp_id,formula,natoms,energy_pa,n_nodes,n_edges,avg_degree,std_degree,avg_clustering,density
357,mp-1214594,Ba2YCuO5,18,-2.5309991218055554,18,107,11.88888888888889,1.523478800089121,0.7014744514744513,0.6993464052287581
358,mp-1218770,Sr2NdSmMn4O12,20,-2.7460234049419996,20,140,14.0,1.2649110640673518,0.7516866466866468,0.7368421052631579
359,mp-1184143,DyTm3,8,-0.0026171824999998705,8,24,6.0,0.0,0.7999999999999999,0.8571428571428571
360,mp-1181352,Mo2H12C4N2O15,70,-1.4097497987699998,70,746,21.314285714285713,2.0808161664037854,0.5666777920782498,0.30890269151138716
361,mp-1094904,Ce3Mg,4,0.10934255500000045,4,6,3.0,0.0,1.0,1.0
362,mp-1208860,SmAl3(BO3)4,20,-3.257679270208333,20,190,19.0,0.0,1.0,1.0
363,mp-1224413,H3Pd4,7,-0.1356524422657144,7,18,5.142857142857143,0.3499271061118826,0.7999999999999999,0.8571428571428571
364,mp-1046495,Sr2AlCu2BiO7,26,-2.1915057637500004,26,175,13.461538461538462,2.5605103041681905,0.6889213350751813,0.5384615384615384
365,mp-1204701,Cd(NO3)2,36,-0.31233406191777785,36,280,15.555555555555555,1.892154040658489,0.4796621182586096,0.4444444444444444
366,mp-1198851,K4Cu(IO10)2,54,-0.4900915758148154,54,368,13.62962962962963,1.494388222357927,0.4045444751327103,0.25716282320055905
367,mp-1025168,RuF6,7,-1.9239140660200005,7,21,6.0,0.0,1.0,1.0
368,mp-1076858,Sr7CaFe7CoO24,40,-2.2862174560000006,40,364,18.2,2.4,0.5625087189025809,0.4666666666666667
369,mp-1224612,Hf20(FeSb3)3,32,-0.4402944610937496,32,176,11.0,1.5811388300841898,0.6305604118104118,0.3548387096774194
370,mp-1225391,Fe3Co3Ge2,8,-0.0412872037500005,8,28,7.0,0.0,1.0,1.0
371,mp-1103998,Fe(Mo3S4)2,15,-0.9178235381666667,15,80,10.666666666666666,1.1925695879998877,0.7701443001443001,0.7619047619047619
372,mp-1204590,ErSi3Ni5,36,-0.7191363394444442,36,202,11.222222222222221,1.547598697464902,0.6739421072754408,0.32063492063492066
373,mp-1207683,TmMnSi,12,-0.5372531050000001,12,50,8.333333333333334,1.247219128924647,0.753968253968254,0.7575757575757576
374,mp-1212771,LaH23C4N6(Cl2O5)2,96,-1.2216371320433328,96,1158,24.125,2.403339690236623,0.5495584926837142,0.25394736842105264
375,mp-1183381,Ba2ZnIn,4,-0.28745637958333337,4,4,2.0,0.0,0.0,0.6666666666666666
376,mp-2533,NbO2,6,-2.8590973232142844,6,15,5.0,0.0,1.0,1.0
377,mp-891880,AgGeO3,80,-1.3539601644999997,80,664,16.6,1.8000000000000003,0.3976927802160003,0.21012658227848102
378,mp-1181183,K3B3O10,64,-1.686833212749999,64,476,14.875,1.79843682124227,0.5121846597030418,0.2361111111111111
379,mp-1110858,K2AgMoCl6,10,-1.556285730556,10,36,7.2,0.9797958971132713,0.7485714285714287,0.8
380,mp-1220412,NbCuSe2,8,-0.5469080548325893,8,12,3.0,0.0,0.5,0.42857142857142855
381,mp-1211680,K4Al2O,14,0.01312401810714243,14,40,5.714285714285714,1.979486637221574,0.4081632653061225,0.43956043956043955
382,mp-1212091,HoAsSe,12,-1.4303547345312495,12,28,4.666666666666667,0.4714045207910316,0.5888888888888889,0.42424242424242425
383,mp-1105916,FeSO7,18,-0.9382904930902782,18,117,13.0,0.816496580927726,0.75002775002775,0.7647058823529411
384,mp-1189291,Sr(SO3)2,18,-1.0689832289583339,18,99,11.0,0.816496580927726,0.5874298540965206,0.6470588235294118
385,mp-1207437,Zr9Re4O3,32,-1.305044239921875,32,222,13.875,2.0879116360612584,0.49491394022644025,0.4475806451612903
386,mp-1044527,PrMgV2O6,20,-2.92148943975,20,162,16.2,0.9797958971132712,0.8460644257703083,0.8526315789473684
387,mp-623098,Ca2FeWO6,20,-2.5682665755,20,140,14.0,1.2649110640673518,0.751686646686647,0.7368421052631579
388,mp-1196322,CaCu10Te4(As2O17)2,53,-1.2080859151415098,53,482,18.18867924528302,1.9431214313872438,0.4689291947221729,0.3497822931785196
389,mp-1217305,ThAl2Ni3,6,-0.5341786250000004,6,15,5.0,0.0,1.0,1.0
390,mp-1183585,CaHoZn2,4,-0.2919480462499999,4,6,3.0,0.0,1.0,1.0
391,mp-1216002,YTh(B2Ru3)2,12,-0.48555556722222093,12,44,7.333333333333333,0.7453559924999298,0.6719576719576721,0.6666666666666666
392,mp-1214023,Ca3Ga3Ge3O14,23,-2.5173732827173914,23,188,16.347826086956523,1.0470951807645474,0.7302612349287542,0.7430830039525692
393,mp-1207620,Yb4MgCu,24,-0.1455033095833332,24,156,13.0,2.0,0.559046509046509,0.5652173913043478
394,mp-1206511,Cs2ZrI6,9,-1.2613615624904218,9,6,1.3333333333333333,1.699673171197595,0.0,0.16666666666666666
395,mp-1216250,Y4US5O3,52,-2.9713788999278847,52,214,8.23076923076923,1.475640468711606,0.49282384282384306,0.16138763197586728
396,mp-1211543,LaAlRh,24,-0.831427817083334,24,94,7.833333333333333,1.4624940645653537,0.6453703703703703,0.34057971014492755
397,mp-1197593,K4NiP6O25,36,-1.7243605432251978,36,251,13.944444444444445,2.5813911456642096,0.5976381280302848,0.3984126984126984
398,mp-1218571,Sr3Li4Nb6O20,33,-3.0523619308441554,33,230,13.93939393939394,2.373328999903185,0.6537224708347704,0.4356060606060606
399,mp-1190964,TePd4,25,-0.024359432400000287,25,136,10.88,0.863481325796916,0.4058181818181821,0.4533333333333333
400,mp-1214606,Ba3Nd(BO2)9,62,-3.1310930543548388,62,612,19.741935483870968,2.2571426689723744,0.6375826242372766,0.32363828662083555
401,mp-1181403,FeN2Cl5O,36,0.14140304390999997,36,148,8.222222222222221,1.3966450099973926,0.5092592592592591,0.23492063492063492
402,mp-1189015,Er5Si3C,18,-0.6343272748611118,18,114,12.666666666666666,1.247219128924647,0.702131202131202,0.7450980392156863
403,mp-1215430,Zn2SeS,4,-0.9145376331640627,4,6,3.0,0.0,1.0,1.0
404,mp-1221242,Na3(CoO2)4,15,-1.4282072336666678,15,101,13.466666666666667,0.498887651569859,0.958974358974359,0.9619047619047619
405,mp-1215560,Zr3NbZn8,12,-0.23448144351190456,12,50,8.333333333333334,0.4714045207910317,0.7195767195767196,0.7575757575757576
406,mp-1206162,Y2Cl2O,5,-1.7318442855540006,5,5,2.0,0.0,0.0,0.5
407,mp-631553,Ga2BSb,4,0.9242302570833334,4,6,3.0,0.0,1.0,1.0
408,mp-1194559,Co2Br3N7O2,28,0.8016414789885705,28,140,10.0,1.3627702877384937,0.5612038754895897,0.37037037037037035
409,mp-1218819,Sr2Gd2TlNi2O9,16,-2.406394941015625,16,49,6.125,0.5994789404140899,0.6678571428571427,0.4083333333333333
410,mp-1204479,Na(SeO3)4,34,-0.977885427316177,34,160,9.411764705882353,1.5740103717952532,0.6454630336983277,0.28520499108734404
411,mp-1103281,NClO,12,-0.5091620072966668,12,60,10.0,0.0,0.8888888888888892,0.9090909090909091
412,mp-1195835,Ga2SbTe4Cl7,56,-1.0240680682371432,56,206,7.357142857142857,1.7971065179155892,0.4369047619047617,0.13376623376623376
413,mp-1104306,Rb3(SeO4)2,13,-1.5943986406324604,13,68,10.461538461538462,0.7457969011409737,0.8595959595959595,0.8717948717948718
414,mp-1096608,BaSrTl2,4,1.0144227375,4,4,2.0,0.0,0.0,0.6666666666666666
415,mp-1044071,CrNiP2O9,52,-2.0069695623489006,52,418,16.076923076923077,1.795787312296731,0.5511206798150121,0.3152337858220211
416,mp-1212562,NaCrH12(SO4)2,96,-0.8483892443360409,96,1096,22.833333333333332,1.7950549357115015,0.43849069167920934,0.24035087719298245
417,mp-1192884,Fe23C6,29,0.04635208922413748,29,332,22.896551724137932,2.218182349803502,0.8245975345366825,0.8177339901477833
418,mp-1041214,CaHo(FeO3)2,20,-2.66355229075,20,164,16.4,0.7999999999999999,0.8539869281045748,0.8631578947368421
419,mp-1215106,CeGe3Pt5,36,-0.6897183572222221,36,152,8.444444444444445,1.3425606637327303,0.5888648388648394,0.24126984126984127
420,mp-1205313,SmAgAs2,8,-0.7696552056249999,8,20,5.0,0.0,0.6,0.7142857142857143
421,mp-1200456,K3Al3OF12,38,-3.353289433922632,38,306,16.105263157894736,2.268659164447611,0.6204429797023899,0.4352773826458037
422,mp-1096078,InBiPb2,4,1.1991244629166666,4,4,2.0,0.0,0.0,0.6666666666666666
423,mp-1192710,Ni(ClO2)2,28,0.34531694192571394,28,188,13.428571428571429,1.1780301787479028,0.6827220398648972,0.4973544973544973
424,mp-1223968,Ho2SiGe,4,-0.83322035625,4,6,3.0,0.0,1.0,1.0
425,mp-1176224,Li9Mn2Co5O16,32,-1.8569981831849995,32,315,19.6875,0.5266343608235224,0.6866671888053467,0.6350806451612904
426,mp-631467,BeInSi2,4,0.7155740804166659,4,6,3.0,0.0,1.0,1.0
427,mp-1211137,LiNd(WO4)2,24,-2.6416953210416665,24,214,17.833333333333332,1.9075871903765995,0.7818140121545696,0.7753623188405797
428,mp-1218921,SnSbO4,6,-1.8991389591666668,6,15,5.0,0.0,1.0,1.0
429,mp-1224395,Hf(AlFe)6,13,-0.38093472884615337,13,69,10.615384615384615,0.624926031125843,0.8704739704739707,0.8846153846153846
430,mp-1207970,Tm5BiPt2,16,-0.9384172212499999,16,90,11.25,1.6393596310755,0.7501900876900878,0.75
431,mp-1103461,As4BrNO6,12,-0.8568888366566666,12,41,6.833333333333333,1.067187372905475,0.6740740740740742,0.6212121212121212
432,mp-1186488,Pm3Ag,4,0.0007920068749998066,4,6,3.0,0.0,1.0,1.0
433,mp-1211938,La3TaGa5O14,23,-2.946397750326088,23,173,15.043478260869565,1.041665091366169,0.6675770308123247,0.6837944664031621
434,mp-1207738,Zn4(MoO4)3,76,-1.8755302807894736,76,592,15.578947368421053,1.4259175983309544,0.503598173412415,0.20771929824561403
435,mp-1110859,K3GaCl6,10,-1.9254474733560003,10,36,7.2,0.9797958971132713,0.7485714285714287,0.8
436,mp-1176120,Li9Mn2Co5O16,32,-1.8334325322474996,32,236,14.75,0.4330127018922193,0.6772893772893774,0.47580645161290325
437,mp-1177909,Li2MnV(PO4)3,38,-2.6010869624941355,38,391,20.57894736842105,2.7109095283528237,0.576296121012648,0.5561877667140825
438,mp-1197842,GdHSO5,32,-2.6229582045540614,32,250,15.625,1.1110243021644486,0.6661605347267112,0.5040322580645161
439,mp-1191118,Cs2Sb,24,-0.37666619205459756,24,40,3.3333333333333335,1.247219128924647,0.09999999999999999,0.14492753623188406
440,mp-1018025,LuAgO2,4,-2.723025908125,4,6,3.0,0.0,1.0,1.0
441,mp-1044569,Ba2YSn2F11,48,-3.590212216130625,48,327,13.625,1.1110243021644486,0.519932151182151,0.2898936170212766
442,mp-1210899,Na2CaSi10(H3O10)2,78,-2.3983621567107676,78,678,17.384615384615383,2.931835730307362,0.5724571953674118,0.22577422577422576
443,mp-1196452,H6C(NO)4,60,-0.584869669666,60,478,15.933333333333334,1.4817407180595246,0.5337382609364032,0.27005649717514124
444,mp-1198019,ReN2(OF2)4,120,-1.7100752132853334,120,1144,19.066666666666666,2.379542439676633,0.42103960274979263,0.16022408963585436
445,mp-1181952,CdCN2,4,1.1960241053724996,4,6,3.0,0.0,1.0,1.0
446,mp-1195360,TmH9C5(NO4)2,50,-1.3301130838435995,50,598,23.92,2.3986662960903917,0.563816909457184,0.4881632653061225
447,mp-1214095,Ca2LaMn2O7,12,-2.850923705889166,12,44,7.333333333333333,0.7453559924999298,0.6653439153439153,0.6666666666666666
448,mp-1192983,Ca(BO5)2,26,-1.3954799404487177,26,196,15.076923076923077,1.2064913185660093,0.6043027862032386,0.6030769230769231
449,mp-1206194,RbDyI3,10,-1.2218821510689655,10,14,2.8,0.7483314773547882,0.0,0.3111111111111111
450,mp-1049283,HoZn(BiO3)2,20,-2.1542940422499997,20,126,12.6,1.019803902718557,0.6800865800865801,0.6631578947368421
451,mp-643394,NaInH8(NF3)2,18,-1.7382557293996297,18,148,16.444444444444443,0.49690399499995325,0.9651416122004357,0.9673202614379085
452,mp-1176348,Na5Fe2P2(CO7)2,50,-2.3115802405714283,50,514,20.56,3.1251239975399376,0.525194002647119,0.41959183673469386
453,mp-768044,Li4Mn2TeWO12,20,-2.006668741221,20,172,17.2,0.39999999999999997,0.8954248366013072,0.9052631578947369
454,mp-1196972,KAgPSe3,72,-0.491352230015129,72,342,9.5,1.4240006242195884,0.3893967143967142,0.13380281690140844
455,mp-1211919,KH2OsBr4N,18,-0.225670496402221,18,70,7.777777777777778,1.617802197617893,0.641975308641975,0.45751633986928103
456,mp-1024046,YMg3O4,8,-2.828036424375,8,28,7.0,0.0,1.0,1.0
457,mp-1201788,Na2U2CoH8(C3O7)4,53,-1.7760117148860373,53,550,20.754716981132077,3.512273146517705,0.6134632502083618,0.3991291727140784
458,mp-1204625,PrCo5P3,36,-0.7544691926587311,36,236,13.11111111111111,1.6629588385661962,0.524016724016724,0.3746031746031746
459,mp-1179176,V3(H3O5)2,38,-1.8542424239063153,38,327,17.210526315789473,1.9756130925393116,0.552659012678159,0.465149359886202
460,mp-1182950,AgSbS2,16,-0.4404606332812504,16,38,4.75,0.9682458365518543,0.5916666666666667,0.31666666666666665
461,mp-1179595,Sb3O14,34,-0.2219362016176468,34,230,13.529411764705882,1.333621652794663,0.6681788799435856,0.40998217468805703
462,mp-715598,V7O13,40,-2.4852006118125005,40,406,20.3,1.0049875621120892,0.6820073914733357,0.5205128205128206
463,mp-1183457,Ca2MgCd,4,-0.1995327362499999,4,6,3.0,0.0,1.0,1.0
464,mp-1211880,K2Yb2(PO4)3,76,-2.783940500390978,76,540,14.210526315789474,2.4187632195949598,0.37109206582890747,0.18947368421052632
465,mp-1175141,Li7Mn4CoO12,24,-2.0866380195349996,24,232,19.333333333333332,0.4714045207910317,0.8290448343079925,0.8405797101449275
466,mp-1106203,Ce(Tl3Te2)3,16,-0.47142939906250003,16,76,9.5,1.6583123951777,0.5412393162393162,0.6333333333333333
467,mp-863028,SmI3,8,-1.399012248125,8,6,1.5,0.8660254037844386,0.0,0.21428571428571427
468,mp-1209657,Pu2Cl2O,5,-1.559518006303999,5,5,2.0,0.0,0.0,0.5
469,mp-1198330,CuC32(NF2)8,57,-0.5813611292645616,57,473,16.596491228070175,2.3904756123901003,0.5677331437474833,0.29636591478696744
470,mp-1226309,CrCuS4,12,-0.7517004818750012,12,60,10.0,1.4142135623730951,0.9272727272727271,0.9090909090909091
471,mp-1103715,CdOF,12,-1.4772488041466667,12,54,9.0,0.0,0.7777777777777778,0.8181818181818182
472,mp-27457,Ba(PO3)2,36,-2.996796754087302,36,210,11.666666666666666,1.1547005383792517,0.562168695502029,0.3333333333333333
473,mp-1199650,Nd2Fe14C,68,-0.0156928705147065,68,502,14.764705882352942,2.4139158269039047,0.4429302425250336,0.22036874451273047
474,mp-1203851,K2ZrS3O14,80,-2.051412078409375,80,606,15.15,1.7399712641305318,0.49051815058007026,0.19177215189873417
475,mp-1215256,ZrNbN2,4,-1.4510776242257144,4,6,3.0,0.0,1.0,1.0
476,mp-1042418,ZnAgBiO5,64,-0.9886700389062497,64,504,15.75,0.82915619758885,0.4994518961430729,0.25
477,mp-1038660,Mg30NbCrO32,64,-2.945680770189732,64,832,26.0,0.0,0.4061538461538457,0.4126984126984127
478,mp-1186839,Rb3Er,4,0.6683496884913793,4,0,0.0,0.0,0.0,0.0
479,mp-1204055,P4H4PtIO10,40,-1.7254084892775723,40,287,14.35,3.118894034750139,0.5242832755479817,0.367948717948718
480,mp-1220193,NdGaSb2,16,-0.6413890362500005,16,32,4.0,1.0,0.6666666666666665,0.26666666666666666
481,mp-1222727,LaThCN,4,-0.8580030677825006,4,6,3.0,0.0,1.0,1.0
482,mp-1205731,K3SmF6,10,-3.503547010364,10,36,7.2,0.9797958971132713,0.7485714285714287,0.8
483,mp-1182634,B9Pb8O21F,78,-2.3829487844215387,78,702,18.0,2.0380986614602725,0.4145501609561377,0.23376623376623376
484,mp-1177045,Li6MnV3(PO4)6,80,-2.662630611970429,80,835,20.875,1.7056890103415687,0.4361424218103277,0.26424050632911394
485,mp-1194764,K4U3(AsO8)2,50,-2.8604460046799995,50,304,12.16,1.6656530250925612,0.5524022644022646,0.24816326530612245
486,mp-1147765,CuPb2(OF)2,7,-1.595330236411429,7,19,5.428571428571429,0.7284313590846835,0.9238095238095239,0.9047619047619048
487,mp-1111834,Cs2LiTaBr6,10,-1.2908711422413794,10,36,7.2,0.9797958971132713,0.7485714285714287,0.8
488,mp-1100,YbC2,3,-0.05084115916666695,3,3,2.0,0.0,1.0,1.0
489,mp-1182481,Cu2WO4,28,-1.3908084239285716,28,238,17.0,2.0,0.6502469408816157,0.6296296296296297
490,mp-1212422,Ho2Fe17H3,44,-0.08935938572090989,44,378,17.181818181818183,2.059045755073841,0.4680006064494369,0.39957716701902746
491,mp-1210487,Nd(BrO2)3,20,-1.0455268485000004,20,96,9.6,0.66332495807108,0.6262626262626263,0.5052631578947369
492,mp-1180028,NaMo4C4NO14,48,-0.606988315411666,48,335,13.958333333333334,3.552923287785551,0.4486438169100708,0.2969858156028369
493,mp-1102530,NaPNO3,12,-1.2928954272121433,12,59,9.833333333333334,0.372677996249965,0.8740740740740743,0.8939393939393939
494,mp-1094567,LiMg3,8,-0.028103674999999884,8,20,5.0,0.0,0.6,0.7142857142857143
495,mp-1185605,LaSe3,8,-1.0423468676953123,8,24,6.0,0.0,0.7999999999999999,0.8571428571428571
496,mp-1196637,BaV2ZnO7,44,-2.547515375113636,44,336,15.272727272727273,1.212878551284212,0.6200872656755012,0.35517970401691334
497,mp-1105483,Ce3Sn6Ru,20,-0.5523735150000008,20,78,7.8,0.7483314773547883,0.6056349206349206,0.4105263157894737
498,mp-1194392,SrAl2(SiO5)2,30,-2.7306010661666664,30,220,14.666666666666666,1.3984117975602022,0.713564213564214,0.5057471264367817
499,mp-1194418,CsCeSiS4,28,-1.7840103514224144,28,118,8.428571428571429,1.5907898179514348,0.6187074829931972,0.31216931216931215
500,mp-1212740,H8C3S(N3O2)2,88,-0.870633281866022,88,1104,25.09090909090909,1.7031812722904722,0.425948647312284,0.2884012539184953
501,mp-1227981,BaSr3Co2Cu4(SO)4,18,-1.595088471180556,18,54,6.0,0.8819171036881969,0.6682539682539683,0.35294117647058826
502,mp-1215060,Al2Cu11B13,52,0.5836958139743592,52,644,24.76923076923077,3.895833003723261,0.5714722704196391,0.4856711915535445
503,mp-1190604,Nb3Al2C,24,-0.40912411252976,24,182,15.166666666666666,0.6871842709362768,0.6563186813186813,0.6594202898550725
504,mp-1214079,Ca6Cd32Cu,39,-0.1881553274358974,39,252,12.923076923076923,1.7742403991801223,0.42319030893691506,0.340080971659919
505,mp-1226670,CeAsPd,6,-0.6796790850000001,6,13,4.333333333333333,0.4714045207910317,0.8222222222222223,0.8666666666666667
506,mp-1190898,Bi7O5F11,23,-2.442866197797391,23,159,13.826086956521738,0.7605589428059087,0.6884933906673034,0.6284584980237155
507,mp-1199510,Pr5Ni19,48,-0.2805265862499991,48,222,9.25,0.6614378277661477,0.6456679894179895,0.19680851063829788
508,mp-1216935,Tm(Fe5Mo)2,13,-0.01474316846153884,13,70,10.76923076923077,0.5756395979652217,0.8850038850038852,0.8974358974358975
509,mp-1190190,YbBr2,24,-2.0858613158333337,24,92,7.666666666666667,0.9428090415820634,0.46560846560846564,0.3333333333333333
510,mp-1217088,TiAlCr,12,-0.1853217363888883,12,50,8.333333333333334,0.4714045207910317,0.7195767195767196,0.7575757575757576
511,mp-1178324,Fe3OF7,22,-2.5283550422345447,22,150,13.636363636363637,0.8813963377120598,0.6840311203947566,0.6493506493506493
512,mp-1206507,Th2(SiPt)3,8,0.3876854737500004,8,8,2.0,0.0,0.0,0.2857142857142857
513,mp-1220548,Nd3Er(WO4)6,34,-2.7266056441911766,34,261,15.352941176470589,1.531672537210769,0.6012139052796491,0.46524064171123
514,mp-1078906,CoTe(PbO3)2,10,-1.49972079275,10,43,8.6,0.4898979485566356,0.9523809523809523,0.9555555555555556
515,mp-1182375,BaMn4O8,13,-2.1253842556799993,13,74,11.384615384615385,0.4865042554105198,0.9431235431235431,0.9487179487179487
516,mp-1195403,H15PdRh(NO)10,148,-0.7791346793405396,148,1858,25.10810810810811,2.299045439798566,0.4274676805214168,0.17080345651774223
517,mp-1219536,ReGeAs,6,-0.03475946083333407,6,15,5.0,0.0,1.0,1.0
518,mp-1202841,U2B6Os,36,-0.5186207955555567,36,268,14.88888888888889,1.286204100310025,0.550631449160861,0.4253968253968254
519,mp-1224298,In3Pt4,21,-0.4446404328571439,21,134,12.761904761904763,1.0647942749999,0.6371564942993514,0.638095238095238
520,mp-1196108,Ba3Ga3P5,66,-0.767171808246753,66,342,10.363636363636363,1.0679400113155209,0.3356749311294762,0.15944055944055943
521,mp-1188951,U3Cu3Sb4,20,-0.04480702399999927,20,108,10.8,1.8330302779823362,0.5383116883116882,0.5684210526315789
522,mp-1197135,LaN3O13,34,-0.548985063434706,34,284,16.705882352941178,1.1764705882352942,0.6510676922987975,0.5062388591800356
523,mp-1207598,YPd3S4,16,-1.20869848140625,16,67,8.375,2.1758618981911515,0.625,0.5583333333333333
524,mp-1216780,UMnFeSi2,5,-0.46154601199999945,5,10,4.0,0.0,1.0,1.0
525,mp-1173397,Sc3NbO7,22,-3.602585298717533,22,180,16.363636363636363,0.77138921583987,0.7613063407181055,0.7792207792207793
526,mp-1219661,Rb(GePt)4,9,-0.46983410781609236,9,36,8.0,0.0,1.0,1.0
527,mp-1214634,Ba3Dy(BO2)9,62,-3.147328747499999,62,624,20.129032258064516,2.1811795489518664,0.6233430404580953,0.32998413537810684
528,mp-1213091,In3Ni7,40,-0.08256952950000027,40,299,14.95,1.2031209415515967,0.505394923703747,0.38333333333333336
529,mp-1196769,K3MoIO13,36,-0.8676634566805556,36,286,15.88888888888889,1.882341594010824,0.5243107129846035,0.45396825396825397
530,mp-1228875,CsNiP,6,0.011373058883415629,6,9,3.0,0.816496580927726,0.2777777777777778,0.6
531,mp-1042883,ZnCr2CoO7,88,-1.64140906375,88,846,19.227272727272727,1.505499560152654,0.49748117082565035,0.22100313479623823
532,mp-1188376,Ca2Fe(PO6)2,17,-2.0194825923109248,17,128,15.058823529411764,0.7252251768198796,0.9383322559793149,0.9411764705882353
533,mp-1176270,Li9Mn2Co5O16,32,-1.8109998222474992,32,176,11.0,0.0,0.6545454545454548,0.3548387096774194
534,mp-1185143,La2CdHg,4,-0.3950570937500002,4,6,3.0,0.0,1.0,1.0