index,mp_id,formula,natoms,energy_pa,n_nodes,n_edges,avg_degree,std_degree,avg_clustering,density
0,mp-1103373,KSn2,12,-0.24488779850000006,12,48,8.0,0.0,0.6607142857142858,0.7272727272727273
1,mp-1106279,BiI3,16,-0.46290994750000003,16,24,3.0,1.7320508075688772,0.0,0.2
2,mp-1224519,K2V6CdCu9O26,44,-1.7150859073522726,44,404,18.363636363636363,2.1541810201950518,0.5480880109820444,0.427061310782241
3,mp-1204424,Na3As(SO2)4,64,-1.3164454594531252,64,406,12.6875,1.3792547806696194,0.40210483960483934,0.2013888888888889
4,mp-1226074,CoNi(SbS)2,12,-0.5358219496874993,12,61,10.166666666666666,0.6871842709362769,0.9196969696969698,0.9242424242424242
5,mp-1217446,Ti2Tl3P5S18,56,-0.9494356131133088,56,266,9.5,1.6366341767699428,0.47244124922696323,0.17272727272727273
6,mp-1227748,BaSr3Lu2(BiO6)2,20,-2.89183652225,20,130,13.0,1.5491933384829668,0.6829792429792427,0.6842105263157895
7,mp-1227542,Ce7Ti4(Se2O)6,29,-2.313949218182472,29,123,8.482758620689655,1.380172144564793,0.5159227745434642,0.30295566502463056
8,mp-1179841,PPb,16,0.1340888245535714,16,48,6.0,0.0,0.4000000000000001,0.4
9,mp-1205334,MgCu2SiS4,16,-1.0402412895312496,16,80,10.0,0.0,0.6666666666666665,0.6666666666666666
10,mp-1213496,KAsOF5,192,-2.3674466379416668,192,1232,12.833333333333334,1.9507833184532708,0.4358450577200574,0.06719022687609075
11,mp-1208479,Tb3Fe2Si3,16,-0.6451307131250008,16,58,7.25,0.4330127018922193,0.6279761904761904,0.48333333333333334
12,mp-1228572,CdFe4Cu10(SnSe4)5,40,-0.2714164387968744,40,128,6.4,2.4166091947189146,0.3039682539682538,0.1641025641025641
13,mp-1180691,KVO4,24,-1.711094437583333,24,108,9.0,0.5773502691896257,0.5558201058201058,0.391304347826087
14,mp-864671,HfAlRh2,4,-1.0210431037499994,4,6,3.0,0.0,1.0,1.0
15,mp-1204317,CeH12N5F4,88,-1.1323718029590901,88,1136,25.818181818181817,2.036850591128007,0.46902220450537246,0.296760710553814
16,mp-1224079,Ho4CrS7,12,-2.153914226536458,12,40,6.666666666666667,0.7453559924999298,0.6422619047619046,0.6060606060606061
17,mp-1203595,ZnH8N2(OF2)2,34,-1.3582959988811756,34,402,23.647058823529413,2.1404006351365004,0.7558819651106633,0.7165775401069518
18,mp-1211679,KCr(MoO4)2,24,-2.219744380666667,24,146,12.166666666666666,1.6244657241348273,0.5356180856180855,0.5289855072463768
19,mp-1228208,Ba4LaTiNb3O15,24,-3.3673783584102175,24,135,11.25,0.82915619758885,0.6368055555555555,0.4891304347826087
20,mp-1214626,Ba2TbCl7,40,-2.8598107688653336,40,194,9.7,1.1874342087037917,0.4441774891774889,0.24871794871794872
21,mp-1077735,LaSn2,6,-0.6670916633333329,6,15,5.0,0.0,1.0,1.0
22,mp-1205600,Ba2NdTaO6,10,-3.510458463500001,10,43,8.6,0.4898979485566356,0.9523809523809523,0.9555555555555556
23,mp-1180118,P2PbO8,22,-1.8646125553896093,22,157,14.272727272727273,1.28564869306645,0.6677118336209245,0.6796536796536796
24,mp-1201527,Cu4Si4Pb4C4ClO28,45,-1.802665235183555,45,374,16.622222222222224,1.179244369904142,0.5290138199529322,0.37777777777777777
25,mp-1192994,Ce3AlVS7,24,-2.0230949102864586,24,138,11.5,1.3228756555322954,0.5252719502719502,0.5
26,mp-1192395,Hg3Bi2(TeCl4)2,30,-1.0390164477386667,30,132,8.8,1.7962924780409972,0.4720057720057718,0.30344827586206896
27,mp-1198291,NpP2H2CO8,56,-1.9409518452875503,56,504,18.0,2.104417123236605,0.47111683097972357,0.32727272727272727
28,mp-1218645,Sr4CeY3Fe2(Cu2O9)2,32,-2.6312751119531246,32,114,7.125,0.8569568250501305,0.6517857142857143,0.22983870967741934
29,mp-1207921,UFe4B,12,-0.13164237277777838,12,60,10.0,1.0,0.9176767676767676,0.9090909090909091
30,mp-1101035,TiNiO3,60,-2.455499004916667,60,466,15.533333333333333,0.590668171555645,0.7013400488400489,0.2632768361581921
31,mp-568203,K2Th(PSe3)3,60,-0.7517774404848221,60,302,10.066666666666666,1.339983416149452,0.43887445887445864,0.17062146892655367
32,mp-1224815,GaCuTe2,4,-0.09053863249999994,4,5,2.5,0.5,0.8333333333333333,0.8333333333333334
33,mp-1214277,Ce6N8O33,47,-1.9068771708572334,47,318,13.53191489361702,1.648352676446516,0.409236341464126,0.29417206290471787
34,mp-1226833,Ce2Zn3Cu7,12,-0.17794182458333316,12,44,7.333333333333333,0.7453559924999298,0.671957671957672,0.6666666666666666
35,mp-1215056,BaMn5(SO4)6,108,-2.287848026458565,108,999,18.5,2.1921577396609844,0.46949606048800624,0.17289719626168223
36,mp-1183601,CaGdRh2,4,-0.5836671475000017,4,6,3.0,0.0,1.0,1.0
37,mp-1223143,La3SmCr4O12,20,-3.1821501573750006,20,138,13.8,1.32664991614216,0.7383999333999338,0.7263157894736842
38,mp-1191245,LuH3,24,-0.7063877881316666,24,240,20.0,0.7071067811865476,0.8569340016708439,0.8695652173913043
39,mp-1228785,Ba12V4O19,35,-2.8285531572499996,35,262,14.971428571428572,1.0277774713488543,0.5175547141933696,0.4403361344537815
40,mp-1187172,SrHN,12,-0.8521090911666663,12,56,9.333333333333334,0.4714045207910317,0.8203703703703703,0.8484848484848485
41,mp-1180674,KZrCu3Se4,9,-0.6425939891527782,9,23,5.111111111111111,0.7370277311900889,0.3301587301587301,0.6388888888888888
42,mp-1181539,Cu(BrN3)2,9,1.7666639450800008,9,36,8.0,0.0,1.0,1.0
43,mp-1202537,Nb8S8O45,61,-2.3792494018998824,61,453,14.852459016393443,1.458002963564535,0.3851339274675821,0.24754098360655738
44,mp-1207432,Zr6Zn23Ge,30,-0.27874403900000005,30,208,13.866666666666667,2.1249836600678966,0.48004805651864474,0.4781609195402299
45,mp-1178448,Cr(NO3)5,63,-0.9386749182849201,63,510,16.19047619047619,1.3669238185149835,0.44440374440374414,0.261136712749616
46,mp-1045465,Y(TiS2)2,14,-1.9539443935119059,14,73,10.428571428571429,0.4948716593053934,0.7307359307359306,0.8021978021978022
47,mp-1219406,Sc3Si3Mo2,16,-0.43826989875000066,16,93,11.625,1.2183492931011204,0.7625825563325563,0.775
48,mp-1220069,NdTh,2,0.038869306249999624,2,1,1.0,0.0,0.0,1.0
49,mp-1048376,CaCoP2O7,44,-2.736268142775974,44,468,21.272727272727273,2.259964162664737,0.5795801465116436,0.49471458773784355
50,mp-1194358,Hf9Re4Ge,28,-0.38102104892857164,28,180,12.857142857142858,1.355261854357877,0.5118334046905476,0.47619047619047616
51,mp-1179213,TeH15C5NOF6,116,-0.9520049771144831,116,1324,22.82758620689655,3.2170769075008554,0.5872407774668299,0.1985007496251874
52,mp-1220375,NbAlV2,4,-0.0343294730357151,4,4,2.0,0.0,0.0,0.6666666666666666
53,mp-1185255,Li3Rh,8,-0.061017742499999805,8,28,7.0,0.0,1.0,1.0
54,mp-1228923,AlCr2,3,0.013648180000000565,3,3,2.0,0.0,1.0,1.0
55,mp-1191037,AgAs(SeF2)3,22,-1.6572115893564772,22,122,11.090909090909092,1.5928559516304757,0.5528360528360529,0.5281385281385281
56,mp-1207899,YTlS2O9,52,-2.1605581111057695,52,418,16.076923076923077,1.5913969896597846,0.43233468722275553,0.3152337858220211
57,mp-1227951,BaLa(CoO3)2,10,-2.1928780467500006,10,45,9.0,0.0,1.0,1.0
58,mp-1196590,Lu11Ge10,42,-0.8089418530952377,42,287,13.666666666666666,2.4559613253766908,0.4251773436647386,0.3333333333333333
59,mp-1205173,Re2P3N2(Cl5O)3,100,-1.3145734472535435,100,417,8.34,1.8067650649710938,0.3949927849927849,0.08424242424242424
60,mp-1207473,ZnC2,12,1.1351324799999993,12,48,8.0,0.0,0.642857142857143,0.7272727272727273
61,mp-1114025,Rb2NaAsBr6,10,-1.1944560530689654,10,36,7.2,0.9797958971132713,0.7485714285714287,0.8
62,mp-1228956,AlAu4,5,-0.1374997180000001,5,5,2.0,0.0,0.0,0.5
63,mp-1179130,TeP2(N2O7)2,21,-1.1932563929193203,21,147,14.0,1.2344267996967353,0.7203875489589774,0.7
64,mp-1045855,CaP4WO12,36,-2.558788632837301,36,288,16.0,1.4337208778404378,0.5315240689918191,0.45714285714285713
65,mp-1178161,HoCuO2,8,-2.7712716368749994,8,16,4.0,0.0,0.5,0.5714285714285714
66,mp-1192919,CuSO9,22,-0.392774472301137,22,134,12.181818181818182,1.0285189544531599,0.7204583295492387,0.5800865800865801
67,mp-1187450,TePb3,4,-0.000300654999999761,4,6,3.0,0.0,1.0,1.0
68,mp-1220851,NaAlSiO4,28,-2.9711751089285707,28,186,13.285714285714286,0.9583148474999098,0.5469340183625897,0.49206349206349204
69,mp-1178063,Li2Cr2(SO4)3,152,-2.201673656365132,152,1392,18.31578947368421,2.103946956979651,0.42813548318681116,0.12129661903102126
70,mp-1179540,ScBr3O7,22,-0.5740594321590904,22,128,11.636363636363637,0.9791208740244551,0.650937950937951,0.5541125541125541
71,mp-1100889,Y3B3O7,26,-2.879920709903847,26,82,6.3076923076923075,0.46153846153846156,0.6190476190476187,0.2523076923076923
72,mp-1222003,MgCdS2,4,-1.2695902582812502,4,6,3.0,0.0,1.0,1.0
73,mp-1176486,Mn2V3Sn(PO4)6,36,-2.594608338049364,36,328,18.22222222222222,3.6675083209108905,0.5648485677300121,0.5206349206349207
74,mp-1204927,BeH10(NF)3,68,-1.3323903076123529,68,994,29.235294117647058,1.5914999127610219,0.5663505058051288,0.4363476733977173
75,mp-1208341,TbAl3(BO3)4,40,-3.2655514932500003,40,470,23.5,1.8027756377319946,0.7127062150494643,0.6025641025641025
76,mp-1183179,AcNdMg2,4,-0.0667948210416669,4,4,2.0,0.0,0.0,0.6666666666666666
77,mp-1221552,Mn5Si2Ge,16,-0.25747603687499865,16,103,12.875,0.7806247497997998,0.846341158841159,0.8583333333333333
78,mp-1041817,ZnCr2CuO7,66,-1.5671917779166662,66,624,18.90909090909091,1.6762808104168887,0.43118289701458845,0.2909090909090909
79,mp-1195646,NaVH2(OF2)2,40,-2.4415490149499997,40,360,18.0,0.8944271909999159,0.5594625042999661,0.46153846153846156
80,mp-861137,LiNi4(PO4)3,40,-2.03618353432143,40,432,21.6,1.772004514666935,0.5988216440310261,0.5538461538461539
81,mp-1228938,AlCuNi6,8,-0.1847013500000001,8,24,6.0,0.0,0.7999999999999999,0.8571428571428571
82,mp-1220403,Nd2Ga5Cu3,10,-0.47085187349999985,10,29,5.8,1.1661903789690602,0.7195238095238096,0.6444444444444445
83,mp-1201899,UTe3O8,96,-2.000703839166666,96,744,15.5,2.345207879911715,0.39318998854602594,0.1631578947368421
84,mp-1223460,KSnAuS3,48,-0.9365661277395839,48,214,8.916666666666666,2.396467307424734,0.3633241758241761,0.18971631205673758
85,mp-1214366,CaH6C6(ClO4)2,46,-1.114819636771305,46,458,19.91304347826087,3.6225506685118605,0.5571197135565911,0.442512077294686
86,mp-1217247,Ti4CoNi,24,-0.29029868152777877,24,162,13.5,1.118033988749895,0.5566766566766569,0.5869565217391305
87,mp-1226896,Ce2Ge2IrRh,12,-0.8911193683333328,12,52,8.666666666666666,0.9428090415820632,0.7846560846560845,0.7878787878787878
88,mp-1213698,Cs6Na4Tl13,23,-0.13844195401049483,23,78,6.782608695652174,3.134055876685235,0.2922266139657445,0.308300395256917
89,mp-1197550,Mg2S2O13,68,-1.4637746573161767,68,528,15.529411764705882,1.8823529411764706,0.40663546372888937,0.2317822651448639
90,mp-1211669,Li(NO)6,13,-0.33624121552153735,13,36,5.538461538461538,0.49851851526214314,1.0,0.46153846153846156
91,mp-1178878,VSO8,40,-1.125266968406251,40,240,12.0,1.7888543819998317,0.5214718614718613,0.3076923076923077
92,mp-1220167,Ni11(GeTe2)2,17,-0.22702131352941154,17,45,5.294117647058823,0.8235294117647057,0.6319327731092437,0.33088235294117646
93,mp-980662,YTmAl2,4,-0.39685147750000027,4,6,3.0,0.0,1.0,1.0
94,mp-1210033,NdNbO2,16,-2.322863612410715,16,112,14.0,0.0,0.9230769230769232,0.9333333333333333
95,mp-1112525,Cs2RbAlCl6,10,-2.1724732442318624,10,36,7.2,0.9797958971132713,0.7485714285714287,0.8
96,mp-1025346,GaAsPd5,7,-0.4905299264285716,7,18,5.142857142857143,0.3499271061118826,0.7999999999999999,0.8571428571428571
97,mp-1215381,Zr9Co3O2,28,-0.8142154008928577,28,90,6.428571428571429,0.49487165930539345,0.6367346938775508,0.23809523809523808
98,mp-1205911,TmCdAu,9,-0.6446996161111108,9,30,6.666666666666667,0.9428090415820634,0.7952380952380952,0.8333333333333334
99,mp-1195414,MnBe2Fe2(P2O11)2,93,-1.496643948291335,93,777,16.70967741935484,2.875856656519054,0.4432292174352497,0.18162692847124826
100,mp-1222176,Mn4NiSe5,10,-0.008831510296874257,10,27,5.4,0.6633249580710799,0.6023809523809522,0.6
101,mp-1194866,Ca3(SiP2)2,36,-0.8795969453968253,36,202,11.222222222222221,1.1331154474650633,0.6558059224725893,0.32063492063492066
102,mp-1225629,Dy(AlFe)6,13,-0.3822982869230764,13,69,10.615384615384615,0.624926031125843,0.8704739704739707,0.8846153846153846
103,mp-1186570,PrDyIn2,4,-0.4639687416666667,4,6,3.0,0.0,1.0,1.0
104,mp-1180828,K4Eu(PS4)2,30,-1.423002465252381,30,156,10.4,0.7999999999999999,0.3685521885521887,0.3586206896551724
105,mp-1020714,Y4AlSiNO8,60,-3.5597050586586674,60,534,17.8,2.039607805437114,0.4445759322613541,0.3016949152542373
106,mp-1185247,Li2CeIn,4,-0.18320163083333352,4,6,3.0,0.0,1.0,1.0
107,mp-1208205,TiGeRh,18,-0.7807739055555558,18,125,13.88888888888889,1.286204100310025,0.8025844525844528,0.8169934640522876
108,mp-1177117,Li5Fe4(PO4)4,58,-2.443957353571429,58,618,21.310344827586206,1.9844820096466427,0.47369255878406885,0.3738656987295826
109,mp-1187534,TePb3,8,0.04093200750000037,8,24,6.0,0.0,0.7999999999999999,0.8571428571428571
110,mp-1208238,Tl2Co2(SO4)3,76,-1.8024684687993426,76,688,18.105263157894736,2.881789225685015,0.43355220197853217,0.24140350877192981
111,mp-1220532,Nd2Fe17C,20,0.004736297312500426,20,142,14.2,1.74928556845359,0.7588854282971932,0.7473684210526316
112,mp-1190085,ZrB4Ir3,16,-0.5186022758333335,16,109,13.625,0.6959705453537527,0.8966033966033968,0.9083333333333333
113,mp-1175215,Li7Mn4CoO12,24,-2.0646966228683326,24,244,20.333333333333332,0.4714045207910317,0.8745196324143693,0.8840579710144928
114,mp-1214345,BaSi12Pt5,36,-0.5002334966666666,36,192,10.666666666666666,1.49071198499986,0.5682280682280684,0.3047619047619048
115,mp-1205209,FeSO7,72,-0.823598113368056,72,608,16.88888888888889,2.0245407953653998,0.6346847563436833,0.2378716744913928
116,mp-20265,LiIn2Pt,4,-0.49330017166666673,4,6,3.0,0.0,1.0,1.0
117,mp-1184458,GdYRh2,4,-0.7959590824999996,4,6,3.0,0.0,1.0,1.0
118,mp-1043526,MgCr(Si2O5)2,64,-3.072267742187499,64,624,19.5,2.179449471770337,0.6096550791829429,0.30952380952380953
119,mp-505216,Gd2Ru2O7,22,-2.559624313522725,22,176,16.0,1.2060453783110545,0.7309768662709842,0.7619047619047619
120,mp-1113739,Na2LiNdCl6,10,-2.2041119467060004,10,36,7.2,0.9797958971132713,0.7485714285714287,0.8
121,mp-1228124,Ba6Ti5PtO18,30,-3.249079793861111,30,184,12.266666666666667,0.9285592184789413,0.6701698301698301,0.42298850574712643
122,mp-1195095,KCuSb3F18,92,-2.6437926513878263,92,684,14.869565217391305,2.524735850601387,0.42707050730337864,0.1634018155757286
123,mp-1225799,Cu2IBr,4,0.012995337500000481,4,6,3.0,0.0,1.0,1.0
124,mp-1215190,ZrTiS6,8,-1.562197212630208,8,20,5.0,1.224744871391589,0.8547619047619046,0.7142857142857143
125,mp-1183614,CaCeZn2,4,-0.20646133999999972,4,6,3.0,0.0,1.0,1.0
126,mp-1174068,Li3Mn2O5,20,-2.122919822816999,20,112,11.2,0.39999999999999997,0.7048484848484848,0.5894736842105263
127,mp-1204215,CdH20C2S2(NO2)6,43,-1.1734708477280231,43,542,25.209302325581394,1.6361915441244521,0.6885237654903985,0.6002214839424141
128,mp-1147621,Li3InBr6,20,-1.2619080058333332,20,96,9.6,0.9165151389911681,0.8487878787878786,0.5052631578947369
129,mp-1110942,K2YCuI6,10,-1.0918494335999998,10,12,2.4,1.9595917942265422,0.0,0.26666666666666666
130,mp-1080164,TeMoWS3,12,-0.9239284157812501,12,13,2.1666666666666665,0.3726779962499649,0.8888888888888888,0.19696969696969696
131,mp-1186659,PmTmTl2,4,-0.3370847443749998,4,6,3.0,0.0,1.0,1.0
132,mp-1221773,MnFe2O3,6,-1.7527887857850004,6,15,5.0,0.0,1.0,1.0
133,mp-1059357,NaSe,2,-0.4268262467968751,2,1,1.0,0.0,0.0,1.0
134,mp-1180782,KCrF3,10,-2.9428694953139996,10,40,8.0,0.0,0.857142857142857,0.8888888888888888
135,mp-1191369,Li2V6O15,23,-2.3800736347282596,23,151,13.130434782608695,1.115283072902666,0.6258589236850106,0.5968379446640316
136,mp-1080060,LaAlO3,10,-3.73519424375,10,45,9.0,0.0,1.0,1.0
137,mp-1191416,PrIn2Ni9,24,-0.20244598097222224,24,154,12.833333333333334,1.9075871903765995,0.5890968508615565,0.5579710144927537
138,mp-1079703,SmSb2Au,8,-0.6893596693750004,8,20,5.0,0.0,0.6,0.7142857142857143
139,mp-1041928,MgMn2O4,28,-2.282171833845715,28,188,13.428571428571429,0.7284313590846836,0.5559678416821272,0.4973544973544973
140,mp-1212730,FeAg(MoO4)2,24,-1.8021042562499996,24,178,14.833333333333334,1.4043582955293932,0.692800377010903,0.644927536231884
141,mp-1199765,Gd3Al2(Ni2H3)3,40,-0.44642844962899986,40,500,25.0,3.646916505762094,0.6476463306808131,0.6410256410256411
142,mp-1111620,Rb2ScAuCl6,10,-1.966283906024966,10,36,7.2,0.9797958971132713,0.7485714285714287,0.8
143,mp-1080127,YbCdPb,9,-0.40839649055555527,9,30,6.666666666666667,0.9428090415820634,0.7952380952380952,0.8333333333333334
144,mp-1198332,Zn3(NO5)2,60,-0.9299917658173323,60,604,20.133333333333333,2.4184476196289406,0.4864797226474437,0.34124293785310733
145,mp-1224327,Hf2Al3Au,6,-0.5255734150000002,6,15,5.0,0.0,1.0,1.0
146,mp-755723,Er2Pb2O7,22,-2.5641774803409088,22,152,13.818181818181818,1.0285189544531599,0.6423258559622194,0.658008658008658
147,mp-1186750,PrInPd2,4,-0.6894434108333334,4,6,3.0,0.0,1.0,1.0
148,mp-1228281,Ba3ZrTa4O15,46,-3.498675747554346,46,270,11.73913043478261,0.8952721861727826,0.470815175163001,0.2608695652173913
149,mp-1192167,NaH4ClO6,24,-1.2368581362700002,24,225,18.75,1.0103629710818451,0.8075500229331499,0.8152173913043478
150,mp-1194380,Co3Mo3C,28,-0.020717712678572094,28,236,16.857142857142858,1.4568627181693672,0.6155757039657972,0.6243386243386243
151,mp-1227812,CaAl2Si4O15,44,-2.4588625749431814,44,307,13.954545454545455,2.771236559032033,0.4759308736264828,0.32452431289640593
152,mp-1183773,DyCdPt2,4,-0.8279215787499998,4,6,3.0,0.0,1.0,1.0
153,mp-1226247,Cr4GaCuS8,14,-1.0709777644642864,14,62,8.857142857142858,2.0303814862216996,0.738095238095238,0.6813186813186813
154,mp-1174280,Li6Mn3CoO10,20,-2.020819571269,20,144,14.4,0.4898979485566356,0.7454945054945059,0.7578947368421053
155,mp-553974,Ba7Fe6CuF34,48,-3.380838557509584,48,371,15.458333333333334,1.4994211846205485,0.4815008588905645,0.32890070921985815
156,mp-1045627,AlCu7O12,20,-0.9591511602499999,20,190,19.0,0.0,1.0,1.0
157,mp-1179660,Sn2C6N2O17,108,-0.6594380416114812,108,728,13.481481481481481,1.6413718374933588,0.43396018167260003,0.12599515403253722
158,mp-1177036,Li6MnV3(PO4)6,80,-2.658027349345428,80,811,20.275,3.2053665936987614,0.4684324602854856,0.25664556962025314
159,mp-1213746,Cs2YbCl5,32,-2.202993804839224,32,142,8.875,1.6153559979150107,0.459208152958153,0.2862903225806452
160,mp-1208563,Tb2Sc3Si4,36,-0.8308152890740743,36,216,12.0,2.70801280154532,0.6145095645095644,0.34285714285714286
161,mp-1179800,Rb(WO3)3,26,-2.232606099545757,26,181,13.923076923076923,1.6853001769389726,0.6519499731038191,0.556923076923077
162,mp-1184670,Hf3Al,8,-0.22288974125000038,8,24,6.0,0.0,0.7999999999999999,0.8571428571428571
163,mp-1217458,TbUTe6,8,-0.6911390166666669,8,13,3.25,0.9682458365518543,0.7708333333333333,0.4642857142857143
164,mp-1048485,Ca(MoO3)2,18,-2.3885463230555564,18,109,12.11111111111111,1.2422599874998832,0.7369007535674201,0.7124183006535948
165,mp-1221324,RbTe4NO11,68,-1.3490426519985188,68,458,13.470588235294118,2.329292926261568,0.520951472595071,0.20105355575065847
166,mp-1194949,KFeNi(PO4)2,52,-2.3579865145989016,52,428,16.46153846153846,1.598816130063579,0.5642286420150197,0.32277526395173456
167,mp-1177251,Li4Ti5Co3O16,28,-2.7128809879761917,28,251,17.928571428571427,1.251529676281088,0.7101090436174472,0.6640211640211641
168,mp-1225132,EuTmB12,14,-0.4171999024999999,14,82,11.714285714285714,0.45175395145262565,0.8874458874458873,0.9010989010989011
169,mp-1174473,Li4MnCo2O7,28,-1.8773329514078572,28,314,22.428571428571427,0.4948716593053936,0.8217848404183806,0.8306878306878307
170,mp-1198006,TlCu2(AsO4)2,52,-1.3099003621153844,52,428,16.46153846153846,1.0824036368823298,0.506756805286217,0.32277526395173456
171,mp-1220961,NaPdF3,20,-2.109696569214001,20,146,14.6,1.7146428199482249,0.7635934653581712,0.7684210526315789
172,mp-1180243,NaC2N3,24,0.16614659672666812,24,108,9.0,0.816496580927726,0.6773809523809525,0.391304347826087
173,mp-1094198,MgZn2,12,-0.04468087749999997,12,42,7.0,0.0,0.619047619047619,0.6363636363636364
174,mp-1187131,Sr3Ho,8,0.21654289125000004,8,12,3.0,0.0,1.0,0.42857142857142855
175,mp-1205831,NaMnIO6,9,-1.4410397592733328,9,36,8.0,0.0,1.0,1.0
176,mp-1210783,Li2Ca(MnN)2,14,-0.5176308085371427,14,74,10.571428571428571,0.7284313590846835,0.7939393939393941,0.8131868131868132
177,mp-1197888,InAu(I4N)2,48,0.667968783075556,48,128,5.333333333333333,1.5456030825826172,0.2150793650793649,0.11347517730496454
178,mp-1216765,V2Co9W,12,-0.12809130979166738,12,66,11.0,0.0,1.0,1.0
179,mp-1215193,ZrU,2,0.23681691499999857,2,1,1.0,0.0,0.0,1.0